+ 0.1 /NodeList/0/DeviceList/0/$ns3::PointToPointNetDevice/TxQueue/Enqueue ns3::PppHeader (Point-to-Point Protocol: IP (0x0021)) ns3::Ipv4Header (tos 0x0 DSCP Default ECN Not-ECT ttl 64 id 0 protocol 6 offset (bytes) 0 flags [none] length: 56 10.1.1.1 > 10.1.2.2) ns3::TcpHeader (49153 > 7 [SYN] Seq=0 Ack=0 Win=65535 ns3::TcpOptionTS(100;0) ns3::TcpOptionWinScale(2) ns3::TcpOptionSackPermitted([sack_perm]) ns3::TcpOptionEnd(EOL))
- 0.1 /NodeList/0/DeviceList/0/$ns3::PointToPointNetDevice/TxQueue/Dequeue ns3::PppHeader (Point-to-Point Protocol: IP (0x0021)) ns3::Ipv4Header (tos 0x0 DSCP Default ECN Not-ECT ttl 64 id 0 protocol 6 offset (bytes) 0 flags [none] length: 56 10.1.1.1 > 10.1.2.2) ns3::TcpHeader (49153 > 7 [SYN] Seq=0 Ack=0 Win=65535 ns3::TcpOptionTS(100;0) ns3::TcpOptionWinScale(2) ns3::TcpOptionSackPermitted([sack_perm]) ns3::TcpOptionEnd(EOL))
r 0.105023 /NodeList/1/DeviceList/0/$ns3::PointToPointNetDevice/MacRx ns3::PppHeader (Point-to-Point Protocol: IP (0x0021)) ns3::Ipv4Header (tos 0x0 DSCP Default ECN Not-ECT ttl 64 id 0 protocol 6 offset (bytes) 0 flags [none] length: 56 10.1.1.1 > 10.1.2.2) ns3::TcpHeader (49153 > 7 [SYN] Seq=0 Ack=0 Win=65535 ns3::TcpOptionTS(100;0) ns3::TcpOptionWinScale(2) ns3::TcpOptionSackPermitted([sack_perm]) ns3::TcpOptionEnd(EOL))
+ 0.105023 /NodeList/1/DeviceList/1/$ns3::PointToPointNetDevice/TxQueue/Enqueue ns3::PppHeader (Point-to-Point Protocol: IP (0x0021)) ns3::Ipv4Header (tos 0x0 DSCP Default ECN Not-ECT ttl 63 id 0 protocol 6 offset (bytes) 0 flags [none] length: 56 10.1.1.1 > 10.1.2.2) ns3::TcpHeader (49153 > 7 [SYN] Seq=0 Ack=0 Win=65535 ns3::TcpOptionTS(100;0) ns3::TcpOptionWinScale(2) ns3::TcpOptionSackPermitted([sack_perm]) ns3::TcpOptionEnd(EOL))
- 0.105023 /NodeList/1/DeviceList/1/$ns3::PointToPointNetDevice/TxQueue/Dequeue ns3::PppHeader (Point-to-Point Protocol: IP (0x0021)) ns3::Ipv4Header (tos 0x0 DSCP Default ECN Not-ECT ttl 63 id 0 protocol 6 offset (bytes) 0 flags [none] length: 56 10.1.1.1 > 10.1.2.2) ns3::TcpHeader (49153 > 7 [SYN] Seq=0 Ack=0 Win=65535 ns3::TcpOptionTS(100;0) ns3::TcpOptionWinScale(2) ns3::TcpOptionSackPermitted([sack_perm]) ns3::TcpOptionEnd(EOL))
r 0.110046 /NodeList/2/DeviceList/0/$ns3::PointToPointNetDevice/MacRx ns3::PppHeader (Point-to-Point Protocol: IP (0x0021)) ns3::Ipv4Header (tos 0x0 DSCP Default ECN Not-ECT ttl 63 id 0 protocol 6 offset (bytes) 0 flags [none] length: 56 10.1.1.1 > 10.1.2.2) ns3::TcpHeader (49153 > 7 [SYN] Seq=0 Ack=0 Win=65535 ns3::TcpOptionTS(100;0) ns3::TcpOptionWinScale(2) ns3::TcpOptionSackPermitted([sack_perm]) ns3::TcpOptionEnd(EOL))
+ 0.110046 /NodeList/2/DeviceList/0/$ns3::PointToPointNetDevice/TxQueue/Enqueue ns3::PppHeader (Point-to-Point Protocol: IP (0x0021)) ns3::Ipv4Header (tos 0x0 DSCP Default ECN Not-ECT ttl 64 id 0 protocol 6 offset (bytes) 0 flags [none] length: 56 10.1.2.2 > 10.1.1.1) ns3::TcpHeader (7 > 49153 [SYN|ACK] Seq=0 Ack=1 Win=65535 ns3::TcpOptionTS(110;100) ns3::TcpOptionWinScale(2) ns3::TcpOptionSackPermitted([sack_perm]) ns3::TcpOptionEnd(EOL))
- 0.110046 /NodeList/2/DeviceList/0/$ns3::PointToPointNetDevice/TxQueue/Dequeue ns3::PppHeader (Point-to-Point Protocol: IP (0x0021)) ns3::Ipv4Header (tos 0x0 DSCP Default ECN Not-ECT ttl 64 id 0 protocol 6 offset (bytes) 0 flags [none] length: 56 10.1.2.2 > 10.1.1.1) ns3::TcpHeader (7 > 49153 [SYN|ACK] Seq=0 Ack=1 Win=65535 ns3::TcpOptionTS(110;100) ns3::TcpOptionWinScale(2) ns3::TcpOptionSackPermitted([sack_perm]) ns3::TcpOptionEnd(EOL))
r 0.11507 /NodeList/1/DeviceList/1/$ns3::PointToPointNetDevice/MacRx ns3::PppHeader (Point-to-Point Protocol: IP (0x0021)) ns3::Ipv4Header (tos 0x0 DSCP Default ECN Not-ECT ttl 64 id 0 protocol 6 offset (bytes) 0 flags [none] length: 56 10.1.2.2 > 10.1.1.1) ns3::TcpHeader (7 > 49153 [SYN|ACK] Seq=0 Ack=1 Win=65535 ns3::TcpOptionTS(110;100) ns3::TcpOptionWinScale(2) ns3::TcpOptionSackPermitted([sack_perm]) ns3::TcpOptionEnd(EOL))
+ 0.11507 /NodeList/1/DeviceList/0/$ns3::PointToPointNetDevice/TxQueue/Enqueue ns3::PppHeader (Point-to-Point Protocol: IP (0x0021)) ns3::Ipv4Header (tos 0x0 DSCP Default ECN Not-ECT ttl 63 id 0 protocol 6 offset (bytes) 0 flags [none] length: 56 10.1.2.2 > 10.1.1.1) ns3::TcpHeader (7 > 49153 [SYN|ACK] Seq=0 Ack=1 Win=65535 ns3::TcpOptionTS(110;100) ns3::TcpOptionWinScale(2) ns3::TcpOptionSackPermitted([sack_perm]) ns3::TcpOptionEnd(EOL))
- 0.11507 /NodeList/1/DeviceList/0/$ns3::PointToPointNetDevice/TxQueue/Dequeue ns3::PppHeader (Point-to-Point Protocol: IP (0x0021)) ns3::Ipv4Header (tos 0x0 DSCP Default ECN Not-ECT ttl 63 id 0 protocol 6 offset (bytes) 0 flags [none] length: 56 10.1.2.2 > 10.1.1.1) ns3::TcpHeader (7 > 49153 [SYN|ACK] Seq=0 Ack=1 Win=65535 ns3::TcpOptionTS(110;100) ns3::TcpOptionWinScale(2) ns3::TcpOptionSackPermitted([sack_perm]) ns3::TcpOptionEnd(EOL))
r 0.120093 /NodeList/0/DeviceList/0/$ns3::PointToPointNetDevice/MacRx ns3::PppHeader (Point-to-Point Protocol: IP (0x0021)) ns3::Ipv4Header (tos 0x0 DSCP Default ECN Not-ECT ttl 63 id 0 protocol 6 offset (bytes) 0 flags [none] length: 56 10.1.2.2 > 10.1.1.1) ns3::TcpHeader (7 > 49153 [SYN|ACK] Seq=0 Ack=1 Win=65535 ns3::TcpOptionTS(110;100) ns3::TcpOptionWinScale(2) ns3::TcpOptionSackPermitted([sack_perm]) ns3::TcpOptionEnd(EOL))
+ 0.120093 /NodeList/0/DeviceList/0/$ns3::PointToPointNetDevice/TxQueue/Enqueue ns3::PppHeader (Point-to-Point Protocol: IP (0x0021)) ns3::Ipv4Header (tos 0x0 DSCP Default ECN Not-ECT ttl 64 id 1 protocol 6 offset (bytes) 0 flags [none] length: 52 10.1.1.1 > 10.1.2.2) ns3::TcpHeader (49153 > 7 [ACK] Seq=1 Ack=1 Win=32768 ns3::TcpOptionTS(120;110) ns3::TcpOptionEnd(EOL))
- 0.120093 /NodeList/0/DeviceList/0/$ns3::PointToPointNetDevice/TxQueue/Dequeue ns3::PppHeader (Point-to-Point Protocol: IP (0x0021)) ns3::Ipv4Header (tos 0x0 DSCP Default ECN Not-ECT ttl 64 id 1 protocol 6 offset (bytes) 0 flags [none] length: 52 10.1.1.1 > 10.1.2.2) ns3::TcpHeader (49153 > 7 [ACK] Seq=1 Ack=1 Win=32768 ns3::TcpOptionTS(120;110) ns3::TcpOptionEnd(EOL))
+ 0.120093 /NodeList/0/DeviceList/0/$ns3::PointToPointNetDevice/TxQueue/Enqueue ns3::PppHeader (Point-to-Point Protocol: IP (0x0021)) ns3::Ipv4Header (tos 0x0 DSCP Default ECN Not-ECT ttl 64 id 2 protocol 6 offset (bytes) 0 flags [none] length: 1500 10.1.1.1 > 10.1.2.2) ns3::TcpHeader (49153 > 7 [ACK] Seq=1 Ack=1 Win=32768 ns3::TcpOptionTS(120;110) ns3::TcpOptionEnd(EOL)) Payload (size=1448)
+ 0.120093 /NodeList/0/DeviceList/0/$ns3::PointToPointNetDevice/TxQueue/Enqueue ns3::PppHeader (Point-to-Point Protocol: IP (0x0021)) ns3::Ipv4Header (tos 0x0 DSCP Default ECN Not-ECT ttl 64 id 3 protocol 6 offset (bytes) 0 flags [none] length: 1500 10.1.1.1 > 10.1.2.2) ns3::TcpHeader (49153 > 7 [ACK] Seq=1449 Ack=1 Win=32768 ns3::TcpOptionTS(120;110) ns3::TcpOptionEnd(EOL)) Payload (size=1448)
+ 0.120093 /NodeList/0/DeviceList/0/$ns3::PointToPointNetDevice/TxQueue/Enqueue ns3::PppHeader (Point-to-Point Protocol: IP (0x0021)) ns3::Ipv4Header (tos 0x0 DSCP Default ECN Not-ECT ttl 64 id 4 protocol 6 offset (bytes) 0 flags [none] length: 1500 10.1.1.1 > 10.1.2.2) ns3::TcpHeader (49153 > 7 [ACK] Seq=2897 Ack=1 Win=32768 ns3::TcpOptionTS(120;110) ns3::TcpOptionEnd(EOL)) Payload (size=1448)
+ 0.120093 /NodeList/0/DeviceList/0/$ns3::PointToPointNetDevice/TxQueue/Enqueue ns3::PppHeader (Point-to-Point Protocol: IP (0x0021)) ns3::Ipv4Header (tos 0x0 DSCP Default ECN Not-ECT ttl 64 id 5 protocol 6 offset (bytes) 0 flags [none] length: 1500 10.1.1.1 > 10.1.2.2) ns3::TcpHeader (49153 > 7 [ACK] Seq=4345 Ack=1 Win=32768 ns3::TcpOptionTS(120;110) ns3::TcpOptionEnd(EOL)) Payload (size=1448)
+ 0.120093 /NodeList/0/DeviceList/0/$ns3::PointToPointNetDevice/TxQueue/Enqueue ns3::PppHeader (Point-to-Point Protocol: IP (0x0021)) ns3::Ipv4Header (tos 0x0 DSCP Default ECN Not-ECT ttl 64 id 6 protocol 6 offset (bytes) 0 flags [none] length: 1500 10.1.1.1 > 10.1.2.2) ns3::TcpHeader (49153 > 7 [ACK] Seq=5793 Ack=1 Win=32768 ns3::TcpOptionTS(120;110) ns3::TcpOptionEnd(EOL)) Payload (size=1448)
+ 0.120093 /NodeList/0/DeviceList/0/$ns3::PointToPointNetDevice/TxQueue/Enqueue ns3::PppHeader (Point-to-Point Protocol: IP (0x0021)) ns3::Ipv4Header (tos 0x0 DSCP Default ECN Not-ECT ttl 64 id 7 protocol 6 offset (bytes) 0 flags [none] length: 1500 10.1.1.1 > 10.1.2.2) ns3::TcpHeader (49153 > 7 [ACK] Seq=7241 Ack=1 Win=32768 ns3::TcpOptionTS(120;110) ns3::TcpOptionEnd(EOL)) Payload (size=1448)
+ 0.120093 /NodeList/0/DeviceList/0/$ns3::PointToPointNetDevice/TxQueue/Enqueue ns3::PppHeader (Point-to-Point Protocol: IP (0x0021)) ns3::Ipv4Header (tos 0x0 DSCP Default ECN Not-ECT ttl 64 id 8 protocol 6 offset (bytes) 0 flags [none] length: 1500 10.1.1.1 > 10.1.2.2) ns3::TcpHeader (49153 > 7 [ACK] Seq=8689 Ack=1 Win=32768 ns3::TcpOptionTS(120;110) ns3::TcpOptionEnd(EOL)) Payload (size=1448)
+ 0.120093 /NodeList/0/DeviceList/0/$ns3::PointToPointNetDevice/TxQueue/Enqueue ns3::PppHeader (Point-to-Point Protocol: IP (0x0021)) ns3::Ipv4Header (tos 0x0 DSCP Default ECN Not-ECT ttl 64 id 9 protocol 6 offset (bytes) 0 flags [none] length: 1500 10.1.1.1 > 10.1.2.2) ns3::TcpHeader (49153 > 7 [ACK] Seq=10137 Ack=1 Win=32768 ns3::TcpOptionTS(120;110) ns3::TcpOptionEnd(EOL)) Payload (size=1448)
+ 0.120093 /NodeList/0/DeviceList/0/$ns3::PointToPointNetDevice/TxQueue/Enqueue ns3::PppHeader (Point-to-Point Protocol: IP (0x0021)) ns3::Ipv4Header (tos 0x0 DSCP Default ECN Not-ECT ttl 64 id 10 protocol 6 offset (bytes) 0 flags [none] length: 1500 10.1.1.1 > 10.1.2.2) ns3::TcpHeader (49153 > 7 [ACK] Seq=11585 Ack=1 Win=32768 ns3::TcpOptionTS(120;110) ns3::TcpOptionEnd(EOL)) Payload (size=1448)
+ 0.120093 /NodeList/0/DeviceList/0/$ns3::PointToPointNetDevice/TxQueue/Enqueue ns3::PppHeader (Point-to-Point Protocol: IP (0x0021)) ns3::Ipv4Header (tos 0x0 DSCP Default ECN Not-ECT ttl 64 id 11 protocol 6 offset (bytes) 0 flags [none] length: 1500 10.1.1.1 > 10.1.2.2) ns3::TcpHeader (49153 > 7 [ACK] Seq=13033 Ack=1 Win=32768 ns3::TcpOptionTS(120;110) ns3::TcpOptionEnd(EOL)) Payload (size=1448)
- 0.120114 /NodeList/0/DeviceList/0/$ns3::PointToPointNetDevice/TxQueue/Dequeue ns3::PppHeader (Point-to-Point Protocol: IP (0x0021)) ns3::Ipv4Header (tos 0x0 DSCP Default ECN Not-ECT ttl 64 id 2 protocol 6 offset (bytes) 0 flags [none] length: 1500 10.1.1.1 > 10.1.2.2) ns3::TcpHeader (49153 > 7 [ACK] Seq=1 Ack=1 Win=32768 ns3::TcpOptionTS(120;110) ns3::TcpOptionEnd(EOL)) Payload (size=1448)
- 0.120715 /NodeList/0/DeviceList/0/$ns3::PointToPointNetDevice/TxQueue/Dequeue ns3::PppHeader (Point-to-Point Protocol: IP (0x0021)) ns3::Ipv4Header (tos 0x0 DSCP Default ECN Not-ECT ttl 64 id 3 protocol 6 offset (bytes) 0 flags [none] length: 1500 10.1.1.1 > 10.1.2.2) ns3::TcpHeader (49153 > 7 [ACK] Seq=1449 Ack=1 Win=32768 ns3::TcpOptionTS(120;110) ns3::TcpOptionEnd(EOL)) Payload (size=1448)
- 0.121316 /NodeList/0/DeviceList/0/$ns3::PointToPointNetDevice/TxQueue/Dequeue ns3::PppHeader (Point-to-Point Protocol: IP (0x0021)) ns3::Ipv4Header (tos 0x0 DSCP Default ECN Not-ECT ttl 64 id 4 protocol 6 offset (bytes) 0 flags [none] length: 1500 10.1.1.1 > 10.1.2.2) ns3::TcpHeader (49153 > 7 [ACK] Seq=2897 Ack=1 Win=32768 ns3::TcpOptionTS(120;110) ns3::TcpOptionEnd(EOL)) Payload (size=1448)
- 0.121917 /NodeList/0/DeviceList/0/$ns3::PointToPointNetDevice/TxQueue/Dequeue ns3::PppHeader (Point-to-Point Protocol: IP (0x0021)) ns3::Ipv4Header (tos 0x0 DSCP Default ECN Not-ECT ttl 64 id 5 protocol 6 offset (bytes) 0 flags [none] length: 1500 10.1.1.1 > 10.1.2.2) ns3::TcpHeader (49153 > 7 [ACK] Seq=4345 Ack=1 Win=32768 ns3::TcpOptionTS(120;110) ns3::TcpOptionEnd(EOL)) Payload (size=1448)
- 0.122518 /NodeList/0/DeviceList/0/$ns3::PointToPointNetDevice/TxQueue/Dequeue ns3::PppHeader (Point-to-Point Protocol: IP (0x0021)) ns3::Ipv4Header (tos 0x0 DSCP Default ECN Not-ECT ttl 64 id 6 protocol 6 offset (bytes) 0 flags [none] length: 1500 10.1.1.1 > 10.1.2.2) ns3::TcpHeader (49153 > 7 [ACK] Seq=5793 Ack=1 Win=32768 ns3::TcpOptionTS(120;110) ns3::TcpOptionEnd(EOL)) Payload (size=1448)
- 0.123118 /NodeList/0/DeviceList/0/$ns3::PointToPointNetDevice/TxQueue/Dequeue ns3::PppHeader (Point-to-Point Protocol: IP (0x0021)) ns3::Ipv4Header (tos 0x0 DSCP Default ECN Not-ECT ttl 64 id 7 protocol 6 offset (bytes) 0 flags [none] length: 1500 10.1.1.1 > 10.1.2.2) ns3::TcpHeader (49153 > 7 [ACK] Seq=7241 Ack=1 Win=32768 ns3::TcpOptionTS(120;110) ns3::TcpOptionEnd(EOL)) Payload (size=1448)
- 0.123719 /NodeList/0/DeviceList/0/$ns3::PointToPointNetDevice/TxQueue/Dequeue ns3::PppHeader (Point-to-Point Protocol: IP (0x0021)) ns3::Ipv4Header (tos 0x0 DSCP Default ECN Not-ECT ttl 64 id 8 protocol 6 offset (bytes) 0 flags [none] length: 1500 10.1.1.1 > 10.1.2.2) ns3::TcpHeader (49153 > 7 [ACK] Seq=8689 Ack=1 Win=32768 ns3::TcpOptionTS(120;110) ns3::TcpOptionEnd(EOL)) Payload (size=1448)
- 0.12432 /NodeList/0/DeviceList/0/$ns3::PointToPointNetDevice/TxQueue/Dequeue ns3::PppHeader (Point-to-Point Protocol: IP (0x0021)) ns3::Ipv4Header (tos 0x0 DSCP Default ECN Not-ECT ttl 64 id 9 protocol 6 offset (bytes) 0 flags [none] length: 1500 10.1.1.1 > 10.1.2.2) ns3::TcpHeader (49153 > 7 [ACK] Seq=10137 Ack=1 Win=32768 ns3::TcpOptionTS(120;110) ns3::TcpOptionEnd(EOL)) Payload (size=1448)
- 0.124921 /NodeList/0/DeviceList/0/$ns3::PointToPointNetDevice/TxQueue/Dequeue ns3::PppHeader (Point-to-Point Protocol: IP (0x0021)) ns3::Ipv4Header (tos 0x0 DSCP Default ECN Not-ECT ttl 64 id 10 protocol 6 offset (bytes) 0 flags [none] length: 1500 10.1.1.1 > 10.1.2.2) ns3::TcpHeader (49153 > 7 [ACK] Seq=11585 Ack=1 Win=32768 ns3::TcpOptionTS(120;110) ns3::TcpOptionEnd(EOL)) Payload (size=1448)
r 0.125114 /NodeList/1/DeviceList/0/$ns3::PointToPointNetDevice/MacRx ns3::PppHeader (Point-to-Point Protocol: IP (0x0021)) ns3::Ipv4Header (tos 0x0 DSCP Default ECN Not-ECT ttl 64 id 1 protocol 6 offset (bytes) 0 flags [none] length: 52 10.1.1.1 > 10.1.2.2) ns3::TcpHeader (49153 > 7 [ACK] Seq=1 Ack=1 Win=32768 ns3::TcpOptionTS(120;110) ns3::TcpOptionEnd(EOL))
+ 0.125114 /NodeList/1/DeviceList/1/$ns3::PointToPointNetDevice/TxQueue/Enqueue ns3::PppHeader (Point-to-Point Protocol: IP (0x0021)) ns3::Ipv4Header (tos 0x0 DSCP Default ECN Not-ECT ttl 63 id 1 protocol 6 offset (bytes) 0 flags [none] length: 52 10.1.1.1 > 10.1.2.2) ns3::TcpHeader (49153 > 7 [ACK] Seq=1 Ack=1 Win=32768 ns3::TcpOptionTS(120;110) ns3::TcpOptionEnd(EOL))
- 0.125114 /NodeList/1/DeviceList/1/$ns3::PointToPointNetDevice/TxQueue/Dequeue ns3::PppHeader (Point-to-Point Protocol: IP (0x0021)) ns3::Ipv4Header (tos 0x0 DSCP Default ECN Not-ECT ttl 63 id 1 protocol 6 offset (bytes) 0 flags [none] length: 52 10.1.1.1 > 10.1.2.2) ns3::TcpHeader (49153 > 7 [ACK] Seq=1 Ack=1 Win=32768 ns3::TcpOptionTS(120;110) ns3::TcpOptionEnd(EOL))
- 0.125522 /NodeList/0/DeviceList/0/$ns3::PointToPointNetDevice/TxQueue/Dequeue ns3::PppHeader (Point-to-Point Protocol: IP (0x0021)) ns3::Ipv4Header (tos 0x0 DSCP Default ECN Not-ECT ttl 64 id 11 protocol 6 offset (bytes) 0 flags [none] length: 1500 10.1.1.1 > 10.1.2.2) ns3::TcpHeader (49153 > 7 [ACK] Seq=13033 Ack=1 Win=32768 ns3::TcpOptionTS(120;110) ns3::TcpOptionEnd(EOL)) Payload (size=1448)
r 0.125715 /NodeList/1/DeviceList/0/$ns3::PointToPointNetDevice/MacRx ns3::PppHeader (Point-to-Point Protocol: IP (0x0021)) ns3::Ipv4Header (tos 0x0 DSCP Default ECN Not-ECT ttl 64 id 2 protocol 6 offset (bytes) 0 flags [none] length: 1500 10.1.1.1 > 10.1.2.2) ns3::TcpHeader (49153 > 7 [ACK] Seq=1 Ack=1 Win=32768 ns3::TcpOptionTS(120;110) ns3::TcpOptionEnd(EOL)) Payload (size=1448)
r 0.126316 /NodeList/1/DeviceList/0/$ns3::PointToPointNetDevice/MacRx ns3::PppHeader (Point-to-Point Protocol: IP (0x0021)) ns3::Ipv4Header (tos 0x0 DSCP Default ECN Not-ECT ttl 64 id 3 protocol 6 offset (bytes) 0 flags [none] length: 1500 10.1.1.1 > 10.1.2.2) ns3::TcpHeader (49153 > 7 [ACK] Seq=1449 Ack=1 Win=32768 ns3::TcpOptionTS(120;110) ns3::TcpOptionEnd(EOL)) Payload (size=1448)
r 0.126917 /NodeList/1/DeviceList/0/$ns3::PointToPointNetDevice/MacRx ns3::PppHeader (Point-to-Point Protocol: IP (0x0021)) ns3::Ipv4Header (tos 0x0 DSCP Default ECN Not-ECT ttl 64 id 4 protocol 6 offset (bytes) 0 flags [none] length: 1500 10.1.1.1 > 10.1.2.2) ns3::TcpHeader (49153 > 7 [ACK] Seq=2897 Ack=1 Win=32768 ns3::TcpOptionTS(120;110) ns3::TcpOptionEnd(EOL)) Payload (size=1448)
r 0.127518 /NodeList/1/DeviceList/0/$ns3::PointToPointNetDevice/MacRx ns3::PppHeader (Point-to-Point Protocol: IP (0x0021)) ns3::Ipv4Header (tos 0x0 DSCP Default ECN Not-ECT ttl 64 id 5 protocol 6 offset (bytes) 0 flags [none] length: 1500 10.1.1.1 > 10.1.2.2) ns3::TcpHeader (49153 > 7 [ACK] Seq=4345 Ack=1 Win=32768 ns3::TcpOptionTS(120;110) ns3::TcpOptionEnd(EOL)) Payload (size=1448)
r 0.128118 /NodeList/1/DeviceList/0/$ns3::PointToPointNetDevice/MacRx ns3::PppHeader (Point-to-Point Protocol: IP (0x0021)) ns3::Ipv4Header (tos 0x0 DSCP Default ECN Not-ECT ttl 64 id 6 protocol 6 offset (bytes) 0 flags [none] length: 1500 10.1.1.1 > 10.1.2.2) ns3::TcpHeader (49153 > 7 [ACK] Seq=5793 Ack=1 Win=32768 ns3::TcpOptionTS(120;110) ns3::TcpOptionEnd(EOL)) Payload (size=1448)
r 0.128719 /NodeList/1/DeviceList/0/$ns3::PointToPointNetDevice/MacRx ns3::PppHeader (Point-to-Point Protocol: IP (0x0021)) ns3::Ipv4Header (tos 0x0 DSCP Default ECN Not-ECT ttl 64 id 7 protocol 6 offset (bytes) 0 flags [none] length: 1500 10.1.1.1 > 10.1.2.2) ns3::TcpHeader (49153 > 7 [ACK] Seq=7241 Ack=1 Win=32768 ns3::TcpOptionTS(120;110) ns3::TcpOptionEnd(EOL)) Payload (size=1448)
r 0.12932 /NodeList/1/DeviceList/0/$ns3::PointToPointNetDevice/MacRx ns3::PppHeader (Point-to-Point Protocol: IP (0x0021)) ns3::Ipv4Header (tos 0x0 DSCP Default ECN Not-ECT ttl 64 id 8 protocol 6 offset (bytes) 0 flags [none] length: 1500 10.1.1.1 > 10.1.2.2) ns3::TcpHeader (49153 > 7 [ACK] Seq=8689 Ack=1 Win=32768 ns3::TcpOptionTS(120;110) ns3::TcpOptionEnd(EOL)) Payload (size=1448)
r 0.129921 /NodeList/1/DeviceList/0/$ns3::PointToPointNetDevice/MacRx ns3::PppHeader (Point-to-Point Protocol: IP (0x0021)) ns3::Ipv4Header (tos 0x0 DSCP Default ECN Not-ECT ttl 64 id 9 protocol 6 offset (bytes) 0 flags [none] length: 1500 10.1.1.1 > 10.1.2.2) ns3::TcpHeader (49153 > 7 [ACK] Seq=10137 Ack=1 Win=32768 ns3::TcpOptionTS(120;110) ns3::TcpOptionEnd(EOL)) Payload (size=1448)
r 0.130136 /NodeList/2/DeviceList/0/$ns3::PointToPointNetDevice/MacRx ns3::PppHeader (Point-to-Point Protocol: IP (0x0021)) ns3::Ipv4Header (tos 0x0 DSCP Default ECN Not-ECT ttl 63 id 1 protocol 6 offset (bytes) 0 flags [none] length: 52 10.1.1.1 > 10.1.2.2) ns3::TcpHeader (49153 > 7 [ACK] Seq=1 Ack=1 Win=32768 ns3::TcpOptionTS(120;110) ns3::TcpOptionEnd(EOL))
r 0.130522 /NodeList/1/DeviceList/0/$ns3::PointToPointNetDevice/MacRx ns3::PppHeader (Point-to-Point Protocol: IP (0x0021)) ns3::Ipv4Header (tos 0x0 DSCP Default ECN Not-ECT ttl 64 id 10 protocol 6 offset (bytes) 0 flags [none] length: 1500 10.1.1.1 > 10.1.2.2) ns3::TcpHeader (49153 > 7 [ACK] Seq=11585 Ack=1 Win=32768 ns3::TcpOptionTS(120;110) ns3::TcpOptionEnd(EOL)) Payload (size=1448)
r 0.131122 /NodeList/1/DeviceList/0/$ns3::PointToPointNetDevice/MacRx ns3::PppHeader (Point-to-Point Protocol: IP (0x0021)) ns3::Ipv4Header (tos 0x0 DSCP Default ECN Not-ECT ttl 64 id 11 protocol 6 offset (bytes) 0 flags [none] length: 1500 10.1.1.1 > 10.1.2.2) ns3::TcpHeader (49153 > 7 [ACK] Seq=13033 Ack=1 Win=32768 ns3::TcpOptionTS(120;110) ns3::TcpOptionEnd(EOL)) Payload (size=1448)
+ 1.12009 /NodeList/0/DeviceList/0/$ns3::PointToPointNetDevice/TxQueue/Enqueue ns3::PppHeader (Point-to-Point Protocol: IP (0x0021)) ns3::Ipv4Header (tos 0x0 DSCP Default ECN Not-ECT ttl 64 id 12 protocol 6 offset (bytes) 0 flags [none] length: 1500 10.1.1.1 > 10.1.2.2) ns3::TcpHeader (49153 > 7 [ACK] Seq=1 Ack=1 Win=32768 ns3::TcpOptionTS(1120;110) ns3::TcpOptionEnd(EOL)) Payload (size=1448)
- 1.12009 /NodeList/0/DeviceList/0/$ns3::PointToPointNetDevice/TxQueue/Dequeue ns3::PppHeader (Point-to-Point Protocol: IP (0x0021)) ns3::Ipv4Header (tos 0x0 DSCP Default ECN Not-ECT ttl 64 id 12 protocol 6 offset (bytes) 0 flags [none] length: 1500 10.1.1.1 > 10.1.2.2) ns3::TcpHeader (49153 > 7 [ACK] Seq=1 Ack=1 Win=32768 ns3::TcpOptionTS(1120;110) ns3::TcpOptionEnd(EOL)) Payload (size=1448)
r 1.12569 /NodeList/1/DeviceList/0/$ns3::PointToPointNetDevice/MacRx ns3::PppHeader (Point-to-Point Protocol: IP (0x0021)) ns3::Ipv4Header (tos 0x0 DSCP Default ECN Not-ECT ttl 64 id 12 protocol 6 offset (bytes) 0 flags [none] length: 1500 10.1.1.1 > 10.1.2.2) ns3::TcpHeader (49153 > 7 [ACK] Seq=1 Ack=1 Win=32768 ns3::TcpOptionTS(1120;110) ns3::TcpOptionEnd(EOL)) Payload (size=1448)
+ 3.12009 /NodeList/0/DeviceList/0/$ns3::PointToPointNetDevice/TxQueue/Enqueue ns3::PppHeader (Point-to-Point Protocol: IP (0x0021)) ns3::Ipv4Header (tos 0x0 DSCP Default ECN Not-ECT ttl 64 id 13 protocol 6 offset (bytes) 0 flags [none] length: 1500 10.1.1.1 > 10.1.2.2) ns3::TcpHeader (49153 > 7 [ACK] Seq=1 Ack=1 Win=32768 ns3::TcpOptionTS(3120;110) ns3::TcpOptionEnd(EOL)) Payload (size=1448)
- 3.12009 /NodeList/0/DeviceList/0/$ns3::PointToPointNetDevice/TxQueue/Dequeue ns3::PppHeader (Point-to-Point Protocol: IP (0x0021)) ns3::Ipv4Header (tos 0x0 DSCP Default ECN Not-ECT ttl 64 id 13 protocol 6 offset (bytes) 0 flags [none] length: 1500 10.1.1.1 > 10.1.2.2) ns3::TcpHeader (49153 > 7 [ACK] Seq=1 Ack=1 Win=32768 ns3::TcpOptionTS(3120;110) ns3::TcpOptionEnd(EOL)) Payload (size=1448)
r 3.12569 /NodeList/1/DeviceList/0/$ns3::PointToPointNetDevice/MacRx ns3::PppHeader (Point-to-Point Protocol: IP (0x0021)) ns3::Ipv4Header (tos 0x0 DSCP Default ECN Not-ECT ttl 64 id 13 protocol 6 offset (bytes) 0 flags [none] length: 1500 10.1.1.1 > 10.1.2.2) ns3::TcpHeader (49153 > 7 [ACK] Seq=1 Ack=1 Win=32768 ns3::TcpOptionTS(3120;110) ns3::TcpOptionEnd(EOL)) Payload (size=1448)
+ 7.12009 /NodeList/0/DeviceList/0/$ns3::PointToPointNetDevice/TxQueue/Enqueue ns3::PppHeader (Point-to-Point Protocol: IP (0x0021)) ns3::Ipv4Header (tos 0x0 DSCP Default ECN Not-ECT ttl 64 id 14 protocol 6 offset (bytes) 0 flags [none] length: 1500 10.1.1.1 > 10.1.2.2) ns3::TcpHeader (49153 > 7 [ACK] Seq=1 Ack=1 Win=32768 ns3::TcpOptionTS(7120;110) ns3::TcpOptionEnd(EOL)) Payload (size=1448)
- 7.12009 /NodeList/0/DeviceList/0/$ns3::PointToPointNetDevice/TxQueue/Dequeue ns3::PppHeader (Point-to-Point Protocol: IP (0x0021)) ns3::Ipv4Header (tos 0x0 DSCP Default ECN Not-ECT ttl 64 id 14 protocol 6 offset (bytes) 0 flags [none] length: 1500 10.1.1.1 > 10.1.2.2) ns3::TcpHeader (49153 > 7 [ACK] Seq=1 Ack=1 Win=32768 ns3::TcpOptionTS(7120;110) ns3::TcpOptionEnd(EOL)) Payload (size=1448)
r 7.12569 /NodeList/1/DeviceList/0/$ns3::PointToPointNetDevice/MacRx ns3::PppHeader (Point-to-Point Protocol: IP (0x0021)) ns3::Ipv4Header (tos 0x0 DSCP Default ECN Not-ECT ttl 64 id 14 protocol 6 offset (bytes) 0 flags [none] length: 1500 10.1.1.1 > 10.1.2.2) ns3::TcpHeader (49153 > 7 [ACK] Seq=1 Ack=1 Win=32768 ns3::TcpOptionTS(7120;110) ns3::TcpOptionEnd(EOL)) Payload (size=1448)
+ 11.2 /NodeList/2/DeviceList/0/$ns3::PointToPointNetDevice/TxQueue/Enqueue ns3::PppHeader (Point-to-Point Protocol: IP (0x0021)) ns3::Ipv4Header (tos 0x0 DSCP Default ECN Not-ECT ttl 64 id 1 protocol 6 offset (bytes) 0 flags [none] length: 52 10.1.2.2 > 10.1.1.1) ns3::TcpHeader (7 > 49153 [FIN|ACK] Seq=1 Ack=1 Win=32768 ns3::TcpOptionTS(11200;120) ns3::TcpOptionEnd(EOL))
- 11.2 /NodeList/2/DeviceList/0/$ns3::PointToPointNetDevice/TxQueue/Dequeue ns3::PppHeader (Point-to-Point Protocol: IP (0x0021)) ns3::Ipv4Header (tos 0x0 DSCP Default ECN Not-ECT ttl 64 id 1 protocol 6 offset (bytes) 0 flags [none] length: 52 10.1.2.2 > 10.1.1.1) ns3::TcpHeader (7 > 49153 [FIN|ACK] Seq=1 Ack=1 Win=32768 ns3::TcpOptionTS(11200;120) ns3::TcpOptionEnd(EOL))
r 11.205 /NodeList/1/DeviceList/1/$ns3::PointToPointNetDevice/MacRx ns3::PppHeader (Point-to-Point Protocol: IP (0x0021)) ns3::Ipv4Header (tos 0x0 DSCP Default ECN Not-ECT ttl 64 id 1 protocol 6 offset (bytes) 0 flags [none] length: 52 10.1.2.2 > 10.1.1.1) ns3::TcpHeader (7 > 49153 [FIN|ACK] Seq=1 Ack=1 Win=32768 ns3::TcpOptionTS(11200;120) ns3::TcpOptionEnd(EOL))
+ 11.205 /NodeList/1/DeviceList/0/$ns3::PointToPointNetDevice/TxQueue/Enqueue ns3::PppHeader (Point-to-Point Protocol: IP (0x0021)) ns3::Ipv4Header (tos 0x0 DSCP Default ECN Not-ECT ttl 63 id 1 protocol 6 offset (bytes) 0 flags [none] length: 52 10.1.2.2 > 10.1.1.1) ns3::TcpHeader (7 > 49153 [FIN|ACK] Seq=1 Ack=1 Win=32768 ns3::TcpOptionTS(11200;120) ns3::TcpOptionEnd(EOL))
- 11.205 /NodeList/1/DeviceList/0/$ns3::PointToPointNetDevice/TxQueue/Dequeue ns3::PppHeader (Point-to-Point Protocol: IP (0x0021)) ns3::Ipv4Header (tos 0x0 DSCP Default ECN Not-ECT ttl 63 id 1 protocol 6 offset (bytes) 0 flags [none] length: 52 10.1.2.2 > 10.1.1.1) ns3::TcpHeader (7 > 49153 [FIN|ACK] Seq=1 Ack=1 Win=32768 ns3::TcpOptionTS(11200;120) ns3::TcpOptionEnd(EOL))
r 11.21 /NodeList/0/DeviceList/0/$ns3::PointToPointNetDevice/MacRx ns3::PppHeader (Point-to-Point Protocol: IP (0x0021)) ns3::Ipv4Header (tos 0x0 DSCP Default ECN Not-ECT ttl 63 id 1 protocol 6 offset (bytes) 0 flags [none] length: 52 10.1.2.2 > 10.1.1.1) ns3::TcpHeader (7 > 49153 [FIN|ACK] Seq=1 Ack=1 Win=32768 ns3::TcpOptionTS(11200;120) ns3::TcpOptionEnd(EOL))
+ 11.21 /NodeList/0/DeviceList/0/$ns3::PointToPointNetDevice/TxQueue/Enqueue ns3::PppHeader (Point-to-Point Protocol: IP (0x0021)) ns3::Ipv4Header (tos 0x0 DSCP Default ECN Not-ECT ttl 64 id 15 protocol 6 offset (bytes) 0 flags [none] length: 52 10.1.1.1 > 10.1.2.2) ns3::TcpHeader (49153 > 7 [ACK] Seq=1449 Ack=2 Win=32768 ns3::TcpOptionTS(11210;11200) ns3::TcpOptionEnd(EOL))
- 11.21 /NodeList/0/DeviceList/0/$ns3::PointToPointNetDevice/TxQueue/Dequeue ns3::PppHeader (Point-to-Point Protocol: IP (0x0021)) ns3::Ipv4Header (tos 0x0 DSCP Default ECN Not-ECT ttl 64 id 15 protocol 6 offset (bytes) 0 flags [none] length: 52 10.1.1.1 > 10.1.2.2) ns3::TcpHeader (49153 > 7 [ACK] Seq=1449 Ack=2 Win=32768 ns3::TcpOptionTS(11210;11200) ns3::TcpOptionEnd(EOL))
r 11.2151 /NodeList/1/DeviceList/0/$ns3::PointToPointNetDevice/MacRx ns3::PppHeader (Point-to-Point Protocol: IP (0x0021)) ns3::Ipv4Header (tos 0x0 DSCP Default ECN Not-ECT ttl 64 id 15 protocol 6 offset (bytes) 0 flags [none] length: 52 10.1.1.1 > 10.1.2.2) ns3::TcpHeader (49153 > 7 [ACK] Seq=1449 Ack=2 Win=32768 ns3::TcpOptionTS(11210;11200) ns3::TcpOptionEnd(EOL))
+ 11.2151 /NodeList/1/DeviceList/1/$ns3::PointToPointNetDevice/TxQueue/Enqueue ns3::PppHeader (Point-to-Point Protocol: IP (0x0021)) ns3::Ipv4Header (tos 0x0 DSCP Default ECN Not-ECT ttl 63 id 15 protocol 6 offset (bytes) 0 flags [none] length: 52 10.1.1.1 > 10.1.2.2) ns3::TcpHeader (49153 > 7 [ACK] Seq=1449 Ack=2 Win=32768 ns3::TcpOptionTS(11210;11200) ns3::TcpOptionEnd(EOL))
- 11.2151 /NodeList/1/DeviceList/1/$ns3::PointToPointNetDevice/TxQueue/Dequeue ns3::PppHeader (Point-to-Point Protocol: IP (0x0021)) ns3::Ipv4Header (tos 0x0 DSCP Default ECN Not-ECT ttl 63 id 15 protocol 6 offset (bytes) 0 flags [none] length: 52 10.1.1.1 > 10.1.2.2) ns3::TcpHeader (49153 > 7 [ACK] Seq=1449 Ack=2 Win=32768 ns3::TcpOptionTS(11210;11200) ns3::TcpOptionEnd(EOL))
r 11.2201 /NodeList/2/DeviceList/0/$ns3::PointToPointNetDevice/MacRx ns3::PppHeader (Point-to-Point Protocol: IP (0x0021)) ns3::Ipv4Header (tos 0x0 DSCP Default ECN Not-ECT ttl 63 id 15 protocol 6 offset (bytes) 0 flags [none] length: 52 10.1.1.1 > 10.1.2.2) ns3::TcpHeader (49153 > 7 [ACK] Seq=1449 Ack=2 Win=32768 ns3::TcpOptionTS(11210;11200) ns3::TcpOptionEnd(EOL))
+ 15.1201 /NodeList/0/DeviceList/0/$ns3::PointToPointNetDevice/TxQueue/Enqueue ns3::PppHeader (Point-to-Point Protocol: IP (0x0021)) ns3::Ipv4Header (tos 0x0 DSCP Default ECN Not-ECT ttl 64 id 16 protocol 6 offset (bytes) 0 flags [none] length: 1500 10.1.1.1 > 10.1.2.2) ns3::TcpHeader (49153 > 7 [ACK] Seq=1 Ack=2 Win=32768 ns3::TcpOptionTS(15120;11200) ns3::TcpOptionEnd(EOL)) Payload (size=1448)
- 15.1201 /NodeList/0/DeviceList/0/$ns3::PointToPointNetDevice/TxQueue/Dequeue ns3::PppHeader (Point-to-Point Protocol: IP (0x0021)) ns3::Ipv4Header (tos 0x0 DSCP Default ECN Not-ECT ttl 64 id 16 protocol 6 offset (bytes) 0 flags [none] length: 1500 10.1.1.1 > 10.1.2.2) ns3::TcpHeader (49153 > 7 [ACK] Seq=1 Ack=2 Win=32768 ns3::TcpOptionTS(15120;11200) ns3::TcpOptionEnd(EOL)) Payload (size=1448)
r 15.1257 /NodeList/1/DeviceList/0/$ns3::PointToPointNetDevice/MacRx ns3::PppHeader (Point-to-Point Protocol: IP (0x0021)) ns3::Ipv4Header (tos 0x0 DSCP Default ECN Not-ECT ttl 64 id 16 protocol 6 offset (bytes) 0 flags [none] length: 1500 10.1.1.1 > 10.1.2.2) ns3::TcpHeader (49153 > 7 [ACK] Seq=1 Ack=2 Win=32768 ns3::TcpOptionTS(15120;11200) ns3::TcpOptionEnd(EOL)) Payload (size=1448)
