+ 0.1 /NodeList/0/DeviceList/0/$ns3::PointToPointNetDevice/TxQueue/Enqueue ns3::PppHeader (Point-to-Point Protocol: IP (0x0021)) ns3::Ipv4Header (tos 0x0 DSCP Default ECN Not-ECT ttl 64 id 0 protocol 6 offset (bytes) 0 flags [none] length: 56 10.1.1.1 > 10.1.2.2) ns3::TcpHeader (49153 > 7 [SYN] Seq=0 Ack=0 Win=65535 ns3::TcpOptionTS(100;0) ns3::TcpOptionWinScale(2) ns3::TcpOptionSackPermitted([sack_perm]) ns3::TcpOptionEnd(EOL))
- 0.1 /NodeList/0/DeviceList/0/$ns3::PointToPointNetDevice/TxQueue/Dequeue ns3::PppHeader (Point-to-Point Protocol: IP (0x0021)) ns3::Ipv4Header (tos 0x0 DSCP Default ECN Not-ECT ttl 64 id 0 protocol 6 offset (bytes) 0 flags [none] length: 56 10.1.1.1 > 10.1.2.2) ns3::TcpHeader (49153 > 7 [SYN] Seq=0 Ack=0 Win=65535 ns3::TcpOptionTS(100;0) ns3::TcpOptionWinScale(2) ns3::TcpOptionSackPermitted([sack_perm]) ns3::TcpOptionEnd(EOL))
r 0.105023 /NodeList/1/DeviceList/0/$ns3::PointToPointNetDevice/MacRx ns3::PppHeader (Point-to-Point Protocol: IP (0x0021)) ns3::Ipv4Header (tos 0x0 DSCP Default ECN Not-ECT ttl 64 id 0 protocol 6 offset (bytes) 0 flags [none] length: 56 10.1.1.1 > 10.1.2.2) ns3::TcpHeader (49153 > 7 [SYN] Seq=0 Ack=0 Win=65535 ns3::TcpOptionTS(100;0) ns3::TcpOptionWinScale(2) ns3::TcpOptionSackPermitted([sack_perm]) ns3::TcpOptionEnd(EOL))
+ 0.105023 /NodeList/1/DeviceList/1/$ns3::PointToPointNetDevice/TxQueue/Enqueue ns3::PppHeader (Point-to-Point Protocol: IP (0x0021)) ns3::Ipv4Header (tos 0x0 DSCP Default ECN Not-ECT ttl 63 id 0 protocol 6 offset (bytes) 0 flags [none] length: 56 10.1.1.1 > 10.1.2.2) ns3::TcpHeader (49153 > 7 [SYN] Seq=0 Ack=0 Win=65535 ns3::TcpOptionTS(100;0) ns3::TcpOptionWinScale(2) ns3::TcpOptionSackPermitted([sack_perm]) ns3::TcpOptionEnd(EOL))
- 0.105023 /NodeList/1/DeviceList/1/$ns3::PointToPointNetDevice/TxQueue/Dequeue ns3::PppHeader (Point-to-Point Protocol: IP (0x0021)) ns3::Ipv4Header (tos 0x0 DSCP Default ECN Not-ECT ttl 63 id 0 protocol 6 offset (bytes) 0 flags [none] length: 56 10.1.1.1 > 10.1.2.2) ns3::TcpHeader (49153 > 7 [SYN] Seq=0 Ack=0 Win=65535 ns3::TcpOptionTS(100;0) ns3::TcpOptionWinScale(2) ns3::TcpOptionSackPermitted([sack_perm]) ns3::TcpOptionEnd(EOL))
r 0.110046 /NodeList/2/DeviceList/0/$ns3::PointToPointNetDevice/MacRx ns3::PppHeader (Point-to-Point Protocol: IP (0x0021)) ns3::Ipv4Header (tos 0x0 DSCP Default ECN Not-ECT ttl 63 id 0 protocol 6 offset (bytes) 0 flags [none] length: 56 10.1.1.1 > 10.1.2.2) ns3::TcpHeader (49153 > 7 [SYN] Seq=0 Ack=0 Win=65535 ns3::TcpOptionTS(100;0) ns3::TcpOptionWinScale(2) ns3::TcpOptionSackPermitted([sack_perm]) ns3::TcpOptionEnd(EOL))
+ 0.110046 /NodeList/2/DeviceList/0/$ns3::PointToPointNetDevice/TxQueue/Enqueue ns3::PppHeader (Point-to-Point Protocol: IP (0x0021)) ns3::Ipv4Header (tos 0x0 DSCP Default ECN Not-ECT ttl 64 id 0 protocol 6 offset (bytes) 0 flags [none] length: 56 10.1.2.2 > 10.1.1.1) ns3::TcpHeader (7 > 49153 [SYN|ACK] Seq=0 Ack=1 Win=65535 ns3::TcpOptionTS(110;100) ns3::TcpOptionWinScale(2) ns3::TcpOptionSackPermitted([sack_perm]) ns3::TcpOptionEnd(EOL))
- 0.110046 /NodeList/2/DeviceList/0/$ns3::PointToPointNetDevice/TxQueue/Dequeue ns3::PppHeader (Point-to-Point Protocol: IP (0x0021)) ns3::Ipv4Header (tos 0x0 DSCP Default ECN Not-ECT ttl 64 id 0 protocol 6 offset (bytes) 0 flags [none] length: 56 10.1.2.2 > 10.1.1.1) ns3::TcpHeader (7 > 49153 [SYN|ACK] Seq=0 Ack=1 Win=65535 ns3::TcpOptionTS(110;100) ns3::TcpOptionWinScale(2) ns3::TcpOptionSackPermitted([sack_perm]) ns3::TcpOptionEnd(EOL))
r 0.11507 /NodeList/1/DeviceList/1/$ns3::PointToPointNetDevice/MacRx ns3::PppHeader (Point-to-Point Protocol: IP (0x0021)) ns3::Ipv4Header (tos 0x0 DSCP Default ECN Not-ECT ttl 64 id 0 protocol 6 offset (bytes) 0 flags [none] length: 56 10.1.2.2 > 10.1.1.1) ns3::TcpHeader (7 > 49153 [SYN|ACK] Seq=0 Ack=1 Win=65535 ns3::TcpOptionTS(110;100) ns3::TcpOptionWinScale(2) ns3::TcpOptionSackPermitted([sack_perm]) ns3::TcpOptionEnd(EOL))
+ 0.11507 /NodeList/1/DeviceList/0/$ns3::PointToPointNetDevice/TxQueue/Enqueue ns3::PppHeader (Point-to-Point Protocol: IP (0x0021)) ns3::Ipv4Header (tos 0x0 DSCP Default ECN Not-ECT ttl 63 id 0 protocol 6 offset (bytes) 0 flags [none] length: 56 10.1.2.2 > 10.1.1.1) ns3::TcpHeader (7 > 49153 [SYN|ACK] Seq=0 Ack=1 Win=65535 ns3::TcpOptionTS(110;100) ns3::TcpOptionWinScale(2) ns3::TcpOptionSackPermitted([sack_perm]) ns3::TcpOptionEnd(EOL))
- 0.11507 /NodeList/1/DeviceList/0/$ns3::PointToPointNetDevice/TxQueue/Dequeue ns3::PppHeader (Point-to-Point Protocol: IP (0x0021)) ns3::Ipv4Header (tos 0x0 DSCP Default ECN Not-ECT ttl 63 id 0 protocol 6 offset (bytes) 0 flags [none] length: 56 10.1.2.2 > 10.1.1.1) ns3::TcpHeader (7 > 49153 [SYN|ACK] Seq=0 Ack=1 Win=65535 ns3::TcpOptionTS(110;100) ns3::TcpOptionWinScale(2) ns3::TcpOptionSackPermitted([sack_perm]) ns3::TcpOptionEnd(EOL))
r 0.120093 /NodeList/0/DeviceList/0/$ns3::PointToPointNetDevice/MacRx ns3::PppHeader (Point-to-Point Protocol: IP (0x0021)) ns3::Ipv4Header (tos 0x0 DSCP Default ECN Not-ECT ttl 63 id 0 protocol 6 offset (bytes) 0 flags [none] length: 56 10.1.2.2 > 10.1.1.1) ns3::TcpHeader (7 > 49153 [SYN|ACK] Seq=0 Ack=1 Win=65535 ns3::TcpOptionTS(110;100) ns3::TcpOptionWinScale(2) ns3::TcpOptionSackPermitted([sack_perm]) ns3::TcpOptionEnd(EOL))
+ 0.120093 /NodeList/0/DeviceList/0/$ns3::PointToPointNetDevice/TxQueue/Enqueue ns3::PppHeader (Point-to-Point Protocol: IP (0x0021)) ns3::Ipv4Header (tos 0x0 DSCP Default ECN Not-ECT ttl 64 id 1 protocol 6 offset (bytes) 0 flags [none] length: 52 10.1.1.1 > 10.1.2.2) ns3::TcpHeader (49153 > 7 [ACK] Seq=1 Ack=1 Win=32768 ns3::TcpOptionTS(120;110) ns3::TcpOptionEnd(EOL))
- 0.120093 /NodeList/0/DeviceList/0/$ns3::PointToPointNetDevice/TxQueue/Dequeue ns3::PppHeader (Point-to-Point Protocol: IP (0x0021)) ns3::Ipv4Header (tos 0x0 DSCP Default ECN Not-ECT ttl 64 id 1 protocol 6 offset (bytes) 0 flags [none] length: 52 10.1.1.1 > 10.1.2.2) ns3::TcpHeader (49153 > 7 [ACK] Seq=1 Ack=1 Win=32768 ns3::TcpOptionTS(120;110) ns3::TcpOptionEnd(EOL))
+ 0.120093 /NodeList/0/DeviceList/0/$ns3::PointToPointNetDevice/TxQueue/Enqueue ns3::PppHeader (Point-to-Point Protocol: IP (0x0021)) ns3::Ipv4Header (tos 0x0 DSCP Default ECN Not-ECT ttl 64 id 2 protocol 6 offset (bytes) 0 flags [none] length: 1057 10.1.1.1 > 10.1.2.2) ns3::TcpHeader (49153 > 7 [ACK] Seq=1 Ack=1 Win=32768 ns3::TcpOptionTS(120;110) ns3::TcpOptionEnd(EOL)) ns3::SeqTsHeader ((seq=0 time=+0.120093s)) Payload (size=454) ns3::SeqTsHeader ((seq=1 time=+0.120093s)) Payload (size=527)
+ 0.120093 /NodeList/0/DeviceList/0/$ns3::PointToPointNetDevice/TxQueue/Enqueue ns3::PppHeader (Point-to-Point Protocol: IP (0x0021)) ns3::Ipv4Header (tos 0x0 DSCP Default ECN Not-ECT ttl 64 id 3 protocol 6 offset (bytes) 0 flags [none] length: 218 10.1.1.1 > 10.1.2.2) ns3::TcpHeader (49153 > 7 [ACK] Seq=1006 Ack=1 Win=32768 ns3::TcpOptionTS(120;110) ns3::TcpOptionEnd(EOL)) ns3::SeqTsHeader ((seq=2 time=+0.120093s)) Payload (size=154)
+ 0.120093 /NodeList/0/DeviceList/0/$ns3::PointToPointNetDevice/TxQueue/Enqueue ns3::PppHeader (Point-to-Point Protocol: IP (0x0021)) ns3::Ipv4Header (tos 0x0 DSCP Default ECN Not-ECT ttl 64 id 4 protocol 6 offset (bytes) 0 flags [none] length: 1016 10.1.1.1 > 10.1.2.2) ns3::TcpHeader (49153 > 7 [ACK] Seq=1172 Ack=1 Win=32768 ns3::TcpOptionTS(120;110) ns3::TcpOptionEnd(EOL)) ns3::SeqTsHeader ((seq=3 time=+0.120093s)) Payload (size=952)
+ 0.120093 /NodeList/0/DeviceList/0/$ns3::PointToPointNetDevice/TxQueue/Enqueue ns3::PppHeader (Point-to-Point Protocol: IP (0x0021)) ns3::Ipv4Header (tos 0x0 DSCP Default ECN Not-ECT ttl 64 id 5 protocol 6 offset (bytes) 0 flags [none] length: 748 10.1.1.1 > 10.1.2.2) ns3::TcpHeader (49153 > 7 [ACK] Seq=2136 Ack=1 Win=32768 ns3::TcpOptionTS(120;110) ns3::TcpOptionEnd(EOL)) ns3::SeqTsHeader ((seq=4 time=+0.120093s)) Payload (size=684)
+ 0.120093 /NodeList/0/DeviceList/0/$ns3::PointToPointNetDevice/TxQueue/Enqueue ns3::PppHeader (Point-to-Point Protocol: IP (0x0021)) ns3::Ipv4Header (tos 0x0 DSCP Default ECN Not-ECT ttl 64 id 6 protocol 6 offset (bytes) 0 flags [none] length: 740 10.1.1.1 > 10.1.2.2) ns3::TcpHeader (49153 > 7 [ACK] Seq=2832 Ack=1 Win=32768 ns3::TcpOptionTS(120;110) ns3::TcpOptionEnd(EOL)) ns3::SeqTsHeader ((seq=5 time=+0.120093s)) Payload (size=676)
+ 0.120093 /NodeList/0/DeviceList/0/$ns3::PointToPointNetDevice/TxQueue/Enqueue ns3::PppHeader (Point-to-Point Protocol: IP (0x0021)) ns3::Ipv4Header (tos 0x0 DSCP Default ECN Not-ECT ttl 64 id 7 protocol 6 offset (bytes) 0 flags [none] length: 1164 10.1.1.1 > 10.1.2.2) ns3::TcpHeader (49153 > 7 [ACK] Seq=3520 Ack=1 Win=32768 ns3::TcpOptionTS(120;110) ns3::TcpOptionEnd(EOL)) ns3::SeqTsHeader ((seq=6 time=+0.120093s)) Payload (size=1100)
+ 0.120093 /NodeList/0/DeviceList/0/$ns3::PointToPointNetDevice/TxQueue/Enqueue ns3::PppHeader (Point-to-Point Protocol: IP (0x0021)) ns3::Ipv4Header (tos 0x0 DSCP Default ECN Not-ECT ttl 64 id 8 protocol 6 offset (bytes) 0 flags [none] length: 559 10.1.1.1 > 10.1.2.2) ns3::TcpHeader (49153 > 7 [ACK] Seq=4632 Ack=1 Win=32768 ns3::TcpOptionTS(120;110) ns3::TcpOptionEnd(EOL)) ns3::SeqTsHeader ((seq=7 time=+0.120093s)) Payload (size=495)
+ 0.120093 /NodeList/0/DeviceList/0/$ns3::PointToPointNetDevice/TxQueue/Enqueue ns3::PppHeader (Point-to-Point Protocol: IP (0x0021)) ns3::Ipv4Header (tos 0x0 DSCP Default ECN Not-ECT ttl 64 id 9 protocol 6 offset (bytes) 0 flags [none] length: 1308 10.1.1.1 > 10.1.2.2) ns3::TcpHeader (49153 > 7 [ACK] Seq=5139 Ack=1 Win=32768 ns3::TcpOptionTS(120;110) ns3::TcpOptionEnd(EOL)) ns3::SeqTsHeader ((seq=8 time=+0.120093s)) Payload (size=1244)
+ 0.120093 /NodeList/0/DeviceList/0/$ns3::PointToPointNetDevice/TxQueue/Enqueue ns3::PppHeader (Point-to-Point Protocol: IP (0x0021)) ns3::Ipv4Header (tos 0x0 DSCP Default ECN Not-ECT ttl 64 id 10 protocol 6 offset (bytes) 0 flags [none] length: 213 10.1.1.1 > 10.1.2.2) ns3::TcpHeader (49153 > 7 [ACK] Seq=6395 Ack=1 Win=32768 ns3::TcpOptionTS(120;110) ns3::TcpOptionEnd(EOL)) ns3::SeqTsHeader ((seq=9 time=+0.120093s)) Payload (size=149)
+ 0.120093 /NodeList/0/DeviceList/0/$ns3::PointToPointNetDevice/TxQueue/Enqueue ns3::PppHeader (Point-to-Point Protocol: IP (0x0021)) ns3::Ipv4Header (tos 0x0 DSCP Default ECN Not-ECT ttl 64 id 11 protocol 6 offset (bytes) 0 flags [none] length: 653 10.1.1.1 > 10.1.2.2) ns3::TcpHeader (49153 > 7 [ACK] Seq=6556 Ack=1 Win=32768 ns3::TcpOptionTS(120;110) ns3::TcpOptionEnd(EOL)) ns3::SeqTsHeader ((seq=10 time=+0.120093s)) Payload (size=589)
+ 0.120093 /NodeList/0/DeviceList/0/$ns3::PointToPointNetDevice/TxQueue/Enqueue ns3::PppHeader (Point-to-Point Protocol: IP (0x0021)) ns3::Ipv4Header (tos 0x0 DSCP Default ECN Not-ECT ttl 64 id 12 protocol 6 offset (bytes) 0 flags [none] length: 1163 10.1.1.1 > 10.1.2.2) ns3::TcpHeader (49153 > 7 [ACK] Seq=7157 Ack=1 Win=32768 ns3::TcpOptionTS(120;110) ns3::TcpOptionEnd(EOL)) ns3::SeqTsHeader ((seq=11 time=+0.120093s)) Payload (size=1099)
+ 0.120093 /NodeList/0/DeviceList/0/$ns3::PointToPointNetDevice/TxQueue/Enqueue ns3::PppHeader (Point-to-Point Protocol: IP (0x0021)) ns3::Ipv4Header (tos 0x0 DSCP Default ECN Not-ECT ttl 64 id 13 protocol 6 offset (bytes) 0 flags [none] length: 1309 10.1.1.1 > 10.1.2.2) ns3::TcpHeader (49153 > 7 [ACK] Seq=8268 Ack=1 Win=32768 ns3::TcpOptionTS(120;110) ns3::TcpOptionEnd(EOL)) ns3::SeqTsHeader ((seq=12 time=+0.120093s)) Payload (size=1245)
+ 0.120093 /NodeList/0/DeviceList/0/$ns3::PointToPointNetDevice/TxQueue/Enqueue ns3::PppHeader (Point-to-Point Protocol: IP (0x0021)) ns3::Ipv4Header (tos 0x0 DSCP Default ECN Not-ECT ttl 64 id 14 protocol 6 offset (bytes) 0 flags [none] length: 1204 10.1.1.1 > 10.1.2.2) ns3::TcpHeader (49153 > 7 [ACK] Seq=9525 Ack=1 Win=32768 ns3::TcpOptionTS(120;110) ns3::TcpOptionEnd(EOL)) ns3::SeqTsHeader ((seq=13 time=+0.120093s)) Payload (size=1140)
+ 0.120093 /NodeList/0/DeviceList/0/$ns3::PointToPointNetDevice/TxQueue/Enqueue ns3::PppHeader (Point-to-Point Protocol: IP (0x0021)) ns3::Ipv4Header (tos 0x0 DSCP Default ECN Not-ECT ttl 64 id 15 protocol 6 offset (bytes) 0 flags [none] length: 1216 10.1.1.1 > 10.1.2.2) ns3::TcpHeader (49153 > 7 [ACK] Seq=10677 Ack=1 Win=32768 ns3::TcpOptionTS(120;110) ns3::TcpOptionEnd(EOL)) ns3::SeqTsHeader ((seq=14 time=+0.120093s)) Payload (size=1152)
+ 0.120093 /NodeList/0/DeviceList/0/$ns3::PointToPointNetDevice/TxQueue/Enqueue ns3::PppHeader (Point-to-Point Protocol: IP (0x0021)) ns3::Ipv4Header (tos 0x0 DSCP Default ECN Not-ECT ttl 64 id 16 protocol 6 offset (bytes) 0 flags [none] length: 251 10.1.1.1 > 10.1.2.2) ns3::TcpHeader (49153 > 7 [ACK] Seq=11841 Ack=1 Win=32768 ns3::TcpOptionTS(120;110) ns3::TcpOptionEnd(EOL)) ns3::SeqTsHeader ((seq=15 time=+0.120093s)) Payload (size=187)
+ 0.120093 /NodeList/0/DeviceList/0/$ns3::PointToPointNetDevice/TxQueue/Enqueue ns3::PppHeader (Point-to-Point Protocol: IP (0x0021)) ns3::Ipv4Header (tos 0x0 DSCP Default ECN Not-ECT ttl 64 id 17 protocol 6 offset (bytes) 0 flags [none] length: 518 10.1.1.1 > 10.1.2.2) ns3::TcpHeader (49153 > 7 [ACK] Seq=12040 Ack=1 Win=32768 ns3::TcpOptionTS(120;110) ns3::TcpOptionEnd(EOL)) ns3::SeqTsHeader ((seq=16 time=+0.120093s)) Payload (size=454)
+ 0.120093 /NodeList/0/DeviceList/0/$ns3::PointToPointNetDevice/TxQueue/Enqueue ns3::PppHeader (Point-to-Point Protocol: IP (0x0021)) ns3::Ipv4Header (tos 0x0 DSCP Default ECN Not-ECT ttl 64 id 18 protocol 6 offset (bytes) 0 flags [none] length: 169 10.1.1.1 > 10.1.2.2) ns3::TcpHeader (49153 > 7 [ACK] Seq=12506 Ack=1 Win=32768 ns3::TcpOptionTS(120;110) ns3::TcpOptionEnd(EOL)) ns3::SeqTsHeader ((seq=17 time=+0.120093s)) Payload (size=105)
+ 0.120093 /NodeList/0/DeviceList/0/$ns3::PointToPointNetDevice/TxQueue/Enqueue ns3::PppHeader (Point-to-Point Protocol: IP (0x0021)) ns3::Ipv4Header (tos 0x0 DSCP Default ECN Not-ECT ttl 64 id 19 protocol 6 offset (bytes) 0 flags [none] length: 256 10.1.1.1 > 10.1.2.2) ns3::TcpHeader (49153 > 7 [ACK] Seq=12623 Ack=1 Win=32768 ns3::TcpOptionTS(120;110) ns3::TcpOptionEnd(EOL)) ns3::SeqTsHeader ((seq=18 time=+0.120093s)) Payload (size=192)
+ 0.120093 /NodeList/0/DeviceList/0/$ns3::PointToPointNetDevice/TxQueue/Enqueue ns3::PppHeader (Point-to-Point Protocol: IP (0x0021)) ns3::Ipv4Header (tos 0x0 DSCP Default ECN Not-ECT ttl 64 id 20 protocol 6 offset (bytes) 0 flags [none] length: 436 10.1.1.1 > 10.1.2.2) ns3::TcpHeader (49153 > 7 [ACK] Seq=12827 Ack=1 Win=32768 ns3::TcpOptionTS(120;110) ns3::TcpOptionEnd(EOL)) ns3::SeqTsHeader ((seq=19 time=+0.120093s)) Payload (size=372)
+ 0.120093 /NodeList/0/DeviceList/0/$ns3::PointToPointNetDevice/TxQueue/Enqueue ns3::PppHeader (Point-to-Point Protocol: IP (0x0021)) ns3::Ipv4Header (tos 0x0 DSCP Default ECN Not-ECT ttl 64 id 21 protocol 6 offset (bytes) 0 flags [none] length: 1230 10.1.1.1 > 10.1.2.2) ns3::TcpHeader (49153 > 7 [ACK] Seq=13211 Ack=1 Win=32768 ns3::TcpOptionTS(120;110) ns3::TcpOptionEnd(EOL)) ns3::SeqTsHeader ((seq=20 time=+0.120093s)) Payload (size=1166)
- 0.120114 /NodeList/0/DeviceList/0/$ns3::PointToPointNetDevice/TxQueue/Dequeue ns3::PppHeader (Point-to-Point Protocol: IP (0x0021)) ns3::Ipv4Header (tos 0x0 DSCP Default ECN Not-ECT ttl 64 id 2 protocol 6 offset (bytes) 0 flags [none] length: 1057 10.1.1.1 > 10.1.2.2) ns3::TcpHeader (49153 > 7 [ACK] Seq=1 Ack=1 Win=32768 ns3::TcpOptionTS(120;110) ns3::TcpOptionEnd(EOL)) ns3::SeqTsHeader ((seq=0 time=+0.120093s)) Payload (size=454) ns3::SeqTsHeader ((seq=1 time=+0.120093s)) Payload (size=527)
- 0.120538 /NodeList/0/DeviceList/0/$ns3::PointToPointNetDevice/TxQueue/Dequeue ns3::PppHeader (Point-to-Point Protocol: IP (0x0021)) ns3::Ipv4Header (tos 0x0 DSCP Default ECN Not-ECT ttl 64 id 3 protocol 6 offset (bytes) 0 flags [none] length: 218 10.1.1.1 > 10.1.2.2) ns3::TcpHeader (49153 > 7 [ACK] Seq=1006 Ack=1 Win=32768 ns3::TcpOptionTS(120;110) ns3::TcpOptionEnd(EOL)) ns3::SeqTsHeader ((seq=2 time=+0.120093s)) Payload (size=154)
- 0.120626 /NodeList/0/DeviceList/0/$ns3::PointToPointNetDevice/TxQueue/Dequeue ns3::PppHeader (Point-to-Point Protocol: IP (0x0021)) ns3::Ipv4Header (tos 0x0 DSCP Default ECN Not-ECT ttl 64 id 4 protocol 6 offset (bytes) 0 flags [none] length: 1016 10.1.1.1 > 10.1.2.2) ns3::TcpHeader (49153 > 7 [ACK] Seq=1172 Ack=1 Win=32768 ns3::TcpOptionTS(120;110) ns3::TcpOptionEnd(EOL)) ns3::SeqTsHeader ((seq=3 time=+0.120093s)) Payload (size=952)
- 0.121033 /NodeList/0/DeviceList/0/$ns3::PointToPointNetDevice/TxQueue/Dequeue ns3::PppHeader (Point-to-Point Protocol: IP (0x0021)) ns3::Ipv4Header (tos 0x0 DSCP Default ECN Not-ECT ttl 64 id 5 protocol 6 offset (bytes) 0 flags [none] length: 748 10.1.1.1 > 10.1.2.2) ns3::TcpHeader (49153 > 7 [ACK] Seq=2136 Ack=1 Win=32768 ns3::TcpOptionTS(120;110) ns3::TcpOptionEnd(EOL)) ns3::SeqTsHeader ((seq=4 time=+0.120093s)) Payload (size=684)
- 0.121333 /NodeList/0/DeviceList/0/$ns3::PointToPointNetDevice/TxQueue/Dequeue ns3::PppHeader (Point-to-Point Protocol: IP (0x0021)) ns3::Ipv4Header (tos 0x0 DSCP Default ECN Not-ECT ttl 64 id 6 protocol 6 offset (bytes) 0 flags [none] length: 740 10.1.1.1 > 10.1.2.2) ns3::TcpHeader (49153 > 7 [ACK] Seq=2832 Ack=1 Win=32768 ns3::TcpOptionTS(120;110) ns3::TcpOptionEnd(EOL)) ns3::SeqTsHeader ((seq=5 time=+0.120093s)) Payload (size=676)
- 0.12163 /NodeList/0/DeviceList/0/$ns3::PointToPointNetDevice/TxQueue/Dequeue ns3::PppHeader (Point-to-Point Protocol: IP (0x0021)) ns3::Ipv4Header (tos 0x0 DSCP Default ECN Not-ECT ttl 64 id 7 protocol 6 offset (bytes) 0 flags [none] length: 1164 10.1.1.1 > 10.1.2.2) ns3::TcpHeader (49153 > 7 [ACK] Seq=3520 Ack=1 Win=32768 ns3::TcpOptionTS(120;110) ns3::TcpOptionEnd(EOL)) ns3::SeqTsHeader ((seq=6 time=+0.120093s)) Payload (size=1100)
- 0.122096 /NodeList/0/DeviceList/0/$ns3::PointToPointNetDevice/TxQueue/Dequeue ns3::PppHeader (Point-to-Point Protocol: IP (0x0021)) ns3::Ipv4Header (tos 0x0 DSCP Default ECN Not-ECT ttl 64 id 8 protocol 6 offset (bytes) 0 flags [none] length: 559 10.1.1.1 > 10.1.2.2) ns3::TcpHeader (49153 > 7 [ACK] Seq=4632 Ack=1 Win=32768 ns3::TcpOptionTS(120;110) ns3::TcpOptionEnd(EOL)) ns3::SeqTsHeader ((seq=7 time=+0.120093s)) Payload (size=495)
- 0.122321 /NodeList/0/DeviceList/0/$ns3::PointToPointNetDevice/TxQueue/Dequeue ns3::PppHeader (Point-to-Point Protocol: IP (0x0021)) ns3::Ipv4Header (tos 0x0 DSCP Default ECN Not-ECT ttl 64 id 9 protocol 6 offset (bytes) 0 flags [none] length: 1308 10.1.1.1 > 10.1.2.2) ns3::TcpHeader (49153 > 7 [ACK] Seq=5139 Ack=1 Win=32768 ns3::TcpOptionTS(120;110) ns3::TcpOptionEnd(EOL)) ns3::SeqTsHeader ((seq=8 time=+0.120093s)) Payload (size=1244)
- 0.122845 /NodeList/0/DeviceList/0/$ns3::PointToPointNetDevice/TxQueue/Dequeue ns3::PppHeader (Point-to-Point Protocol: IP (0x0021)) ns3::Ipv4Header (tos 0x0 DSCP Default ECN Not-ECT ttl 64 id 10 protocol 6 offset (bytes) 0 flags [none] length: 213 10.1.1.1 > 10.1.2.2) ns3::TcpHeader (49153 > 7 [ACK] Seq=6395 Ack=1 Win=32768 ns3::TcpOptionTS(120;110) ns3::TcpOptionEnd(EOL)) ns3::SeqTsHeader ((seq=9 time=+0.120093s)) Payload (size=149)
- 0.122931 /NodeList/0/DeviceList/0/$ns3::PointToPointNetDevice/TxQueue/Dequeue ns3::PppHeader (Point-to-Point Protocol: IP (0x0021)) ns3::Ipv4Header (tos 0x0 DSCP Default ECN Not-ECT ttl 64 id 11 protocol 6 offset (bytes) 0 flags [none] length: 653 10.1.1.1 > 10.1.2.2) ns3::TcpHeader (49153 > 7 [ACK] Seq=6556 Ack=1 Win=32768 ns3::TcpOptionTS(120;110) ns3::TcpOptionEnd(EOL)) ns3::SeqTsHeader ((seq=10 time=+0.120093s)) Payload (size=589)
- 0.123193 /NodeList/0/DeviceList/0/$ns3::PointToPointNetDevice/TxQueue/Dequeue ns3::PppHeader (Point-to-Point Protocol: IP (0x0021)) ns3::Ipv4Header (tos 0x0 DSCP Default ECN Not-ECT ttl 64 id 12 protocol 6 offset (bytes) 0 flags [none] length: 1163 10.1.1.1 > 10.1.2.2) ns3::TcpHeader (49153 > 7 [ACK] Seq=7157 Ack=1 Win=32768 ns3::TcpOptionTS(120;110) ns3::TcpOptionEnd(EOL)) ns3::SeqTsHeader ((seq=11 time=+0.120093s)) Payload (size=1099)
- 0.123659 /NodeList/0/DeviceList/0/$ns3::PointToPointNetDevice/TxQueue/Dequeue ns3::PppHeader (Point-to-Point Protocol: IP (0x0021)) ns3::Ipv4Header (tos 0x0 DSCP Default ECN Not-ECT ttl 64 id 13 protocol 6 offset (bytes) 0 flags [none] length: 1309 10.1.1.1 > 10.1.2.2) ns3::TcpHeader (49153 > 7 [ACK] Seq=8268 Ack=1 Win=32768 ns3::TcpOptionTS(120;110) ns3::TcpOptionEnd(EOL)) ns3::SeqTsHeader ((seq=12 time=+0.120093s)) Payload (size=1245)
- 0.124183 /NodeList/0/DeviceList/0/$ns3::PointToPointNetDevice/TxQueue/Dequeue ns3::PppHeader (Point-to-Point Protocol: IP (0x0021)) ns3::Ipv4Header (tos 0x0 DSCP Default ECN Not-ECT ttl 64 id 14 protocol 6 offset (bytes) 0 flags [none] length: 1204 10.1.1.1 > 10.1.2.2) ns3::TcpHeader (49153 > 7 [ACK] Seq=9525 Ack=1 Win=32768 ns3::TcpOptionTS(120;110) ns3::TcpOptionEnd(EOL)) ns3::SeqTsHeader ((seq=13 time=+0.120093s)) Payload (size=1140)
- 0.124666 /NodeList/0/DeviceList/0/$ns3::PointToPointNetDevice/TxQueue/Dequeue ns3::PppHeader (Point-to-Point Protocol: IP (0x0021)) ns3::Ipv4Header (tos 0x0 DSCP Default ECN Not-ECT ttl 64 id 15 protocol 6 offset (bytes) 0 flags [none] length: 1216 10.1.1.1 > 10.1.2.2) ns3::TcpHeader (49153 > 7 [ACK] Seq=10677 Ack=1 Win=32768 ns3::TcpOptionTS(120;110) ns3::TcpOptionEnd(EOL)) ns3::SeqTsHeader ((seq=14 time=+0.120093s)) Payload (size=1152)
r 0.125114 /NodeList/1/DeviceList/0/$ns3::PointToPointNetDevice/MacRx ns3::PppHeader (Point-to-Point Protocol: IP (0x0021)) ns3::Ipv4Header (tos 0x0 DSCP Default ECN Not-ECT ttl 64 id 1 protocol 6 offset (bytes) 0 flags [none] length: 52 10.1.1.1 > 10.1.2.2) ns3::TcpHeader (49153 > 7 [ACK] Seq=1 Ack=1 Win=32768 ns3::TcpOptionTS(120;110) ns3::TcpOptionEnd(EOL))
+ 0.125114 /NodeList/1/DeviceList/1/$ns3::PointToPointNetDevice/TxQueue/Enqueue ns3::PppHeader (Point-to-Point Protocol: IP (0x0021)) ns3::Ipv4Header (tos 0x0 DSCP Default ECN Not-ECT ttl 63 id 1 protocol 6 offset (bytes) 0 flags [none] length: 52 10.1.1.1 > 10.1.2.2) ns3::TcpHeader (49153 > 7 [ACK] Seq=1 Ack=1 Win=32768 ns3::TcpOptionTS(120;110) ns3::TcpOptionEnd(EOL))
- 0.125114 /NodeList/1/DeviceList/1/$ns3::PointToPointNetDevice/TxQueue/Dequeue ns3::PppHeader (Point-to-Point Protocol: IP (0x0021)) ns3::Ipv4Header (tos 0x0 DSCP Default ECN Not-ECT ttl 63 id 1 protocol 6 offset (bytes) 0 flags [none] length: 52 10.1.1.1 > 10.1.2.2) ns3::TcpHeader (49153 > 7 [ACK] Seq=1 Ack=1 Win=32768 ns3::TcpOptionTS(120;110) ns3::TcpOptionEnd(EOL))
- 0.125153 /NodeList/0/DeviceList/0/$ns3::PointToPointNetDevice/TxQueue/Dequeue ns3::PppHeader (Point-to-Point Protocol: IP (0x0021)) ns3::Ipv4Header (tos 0x0 DSCP Default ECN Not-ECT ttl 64 id 16 protocol 6 offset (bytes) 0 flags [none] length: 251 10.1.1.1 > 10.1.2.2) ns3::TcpHeader (49153 > 7 [ACK] Seq=11841 Ack=1 Win=32768 ns3::TcpOptionTS(120;110) ns3::TcpOptionEnd(EOL)) ns3::SeqTsHeader ((seq=15 time=+0.120093s)) Payload (size=187)
- 0.125254 /NodeList/0/DeviceList/0/$ns3::PointToPointNetDevice/TxQueue/Dequeue ns3::PppHeader (Point-to-Point Protocol: IP (0x0021)) ns3::Ipv4Header (tos 0x0 DSCP Default ECN Not-ECT ttl 64 id 17 protocol 6 offset (bytes) 0 flags [none] length: 518 10.1.1.1 > 10.1.2.2) ns3::TcpHeader (49153 > 7 [ACK] Seq=12040 Ack=1 Win=32768 ns3::TcpOptionTS(120;110) ns3::TcpOptionEnd(EOL)) ns3::SeqTsHeader ((seq=16 time=+0.120093s)) Payload (size=454)
- 0.125462 /NodeList/0/DeviceList/0/$ns3::PointToPointNetDevice/TxQueue/Dequeue ns3::PppHeader (Point-to-Point Protocol: IP (0x0021)) ns3::Ipv4Header (tos 0x0 DSCP Default ECN Not-ECT ttl 64 id 18 protocol 6 offset (bytes) 0 flags [none] length: 169 10.1.1.1 > 10.1.2.2) ns3::TcpHeader (49153 > 7 [ACK] Seq=12506 Ack=1 Win=32768 ns3::TcpOptionTS(120;110) ns3::TcpOptionEnd(EOL)) ns3::SeqTsHeader ((seq=17 time=+0.120093s)) Payload (size=105)
- 0.12553 /NodeList/0/DeviceList/0/$ns3::PointToPointNetDevice/TxQueue/Dequeue ns3::PppHeader (Point-to-Point Protocol: IP (0x0021)) ns3::Ipv4Header (tos 0x0 DSCP Default ECN Not-ECT ttl 64 id 19 protocol 6 offset (bytes) 0 flags [none] length: 256 10.1.1.1 > 10.1.2.2) ns3::TcpHeader (49153 > 7 [ACK] Seq=12623 Ack=1 Win=32768 ns3::TcpOptionTS(120;110) ns3::TcpOptionEnd(EOL)) ns3::SeqTsHeader ((seq=18 time=+0.120093s)) Payload (size=192)
r 0.125538 /NodeList/1/DeviceList/0/$ns3::PointToPointNetDevice/MacRx ns3::PppHeader (Point-to-Point Protocol: IP (0x0021)) ns3::Ipv4Header (tos 0x0 DSCP Default ECN Not-ECT ttl 64 id 2 protocol 6 offset (bytes) 0 flags [none] length: 1057 10.1.1.1 > 10.1.2.2) ns3::TcpHeader (49153 > 7 [ACK] Seq=1 Ack=1 Win=32768 ns3::TcpOptionTS(120;110) ns3::TcpOptionEnd(EOL)) ns3::SeqTsHeader ((seq=0 time=+0.120093s)) Payload (size=454) ns3::SeqTsHeader ((seq=1 time=+0.120093s)) Payload (size=527)
+ 0.125538 /NodeList/1/DeviceList/1/$ns3::PointToPointNetDevice/TxQueue/Enqueue ns3::PppHeader (Point-to-Point Protocol: IP (0x0021)) ns3::Ipv4Header (tos 0x0 DSCP Default ECN Not-ECT ttl 63 id 2 protocol 6 offset (bytes) 0 flags [none] length: 1057 10.1.1.1 > 10.1.2.2) ns3::TcpHeader (49153 > 7 [ACK] Seq=1 Ack=1 Win=32768 ns3::TcpOptionTS(120;110) ns3::TcpOptionEnd(EOL)) ns3::SeqTsHeader ((seq=0 time=+0.120093s)) Payload (size=454) ns3::SeqTsHeader ((seq=1 time=+0.120093s)) Payload (size=527)
- 0.125538 /NodeList/1/DeviceList/1/$ns3::PointToPointNetDevice/TxQueue/Dequeue ns3::PppHeader (Point-to-Point Protocol: IP (0x0021)) ns3::Ipv4Header (tos 0x0 DSCP Default ECN Not-ECT ttl 63 id 2 protocol 6 offset (bytes) 0 flags [none] length: 1057 10.1.1.1 > 10.1.2.2) ns3::TcpHeader (49153 > 7 [ACK] Seq=1 Ack=1 Win=32768 ns3::TcpOptionTS(120;110) ns3::TcpOptionEnd(EOL)) ns3::SeqTsHeader ((seq=0 time=+0.120093s)) Payload (size=454) ns3::SeqTsHeader ((seq=1 time=+0.120093s)) Payload (size=527)
r 0.125626 /NodeList/1/DeviceList/0/$ns3::PointToPointNetDevice/MacRx ns3::PppHeader (Point-to-Point Protocol: IP (0x0021)) ns3::Ipv4Header (tos 0x0 DSCP Default ECN Not-ECT ttl 64 id 3 protocol 6 offset (bytes) 0 flags [none] length: 218 10.1.1.1 > 10.1.2.2) ns3::TcpHeader (49153 > 7 [ACK] Seq=1006 Ack=1 Win=32768 ns3::TcpOptionTS(120;110) ns3::TcpOptionEnd(EOL)) ns3::SeqTsHeader ((seq=2 time=+0.120093s)) Payload (size=154)
+ 0.125626 /NodeList/1/DeviceList/1/$ns3::PointToPointNetDevice/TxQueue/Enqueue ns3::PppHeader (Point-to-Point Protocol: IP (0x0021)) ns3::Ipv4Header (tos 0x0 DSCP Default ECN Not-ECT ttl 63 id 3 protocol 6 offset (bytes) 0 flags [none] length: 218 10.1.1.1 > 10.1.2.2) ns3::TcpHeader (49153 > 7 [ACK] Seq=1006 Ack=1 Win=32768 ns3::TcpOptionTS(120;110) ns3::TcpOptionEnd(EOL)) ns3::SeqTsHeader ((seq=2 time=+0.120093s)) Payload (size=154)
- 0.125634 /NodeList/0/DeviceList/0/$ns3::PointToPointNetDevice/TxQueue/Dequeue ns3::PppHeader (Point-to-Point Protocol: IP (0x0021)) ns3::Ipv4Header (tos 0x0 DSCP Default ECN Not-ECT ttl 64 id 20 protocol 6 offset (bytes) 0 flags [none] length: 436 10.1.1.1 > 10.1.2.2) ns3::TcpHeader (49153 > 7 [ACK] Seq=12827 Ack=1 Win=32768 ns3::TcpOptionTS(120;110) ns3::TcpOptionEnd(EOL)) ns3::SeqTsHeader ((seq=19 time=+0.120093s)) Payload (size=372)
- 0.125809 /NodeList/0/DeviceList/0/$ns3::PointToPointNetDevice/TxQueue/Dequeue ns3::PppHeader (Point-to-Point Protocol: IP (0x0021)) ns3::Ipv4Header (tos 0x0 DSCP Default ECN Not-ECT ttl 64 id 21 protocol 6 offset (bytes) 0 flags [none] length: 1230 10.1.1.1 > 10.1.2.2) ns3::TcpHeader (49153 > 7 [ACK] Seq=13211 Ack=1 Win=32768 ns3::TcpOptionTS(120;110) ns3::TcpOptionEnd(EOL)) ns3::SeqTsHeader ((seq=20 time=+0.120093s)) Payload (size=1166)
- 0.125962 /NodeList/1/DeviceList/1/$ns3::PointToPointNetDevice/TxQueue/Dequeue ns3::PppHeader (Point-to-Point Protocol: IP (0x0021)) ns3::Ipv4Header (tos 0x0 DSCP Default ECN Not-ECT ttl 63 id 3 protocol 6 offset (bytes) 0 flags [none] length: 218 10.1.1.1 > 10.1.2.2) ns3::TcpHeader (49153 > 7 [ACK] Seq=1006 Ack=1 Win=32768 ns3::TcpOptionTS(120;110) ns3::TcpOptionEnd(EOL)) ns3::SeqTsHeader ((seq=2 time=+0.120093s)) Payload (size=154)
r 0.126033 /NodeList/1/DeviceList/0/$ns3::PointToPointNetDevice/MacRx ns3::PppHeader (Point-to-Point Protocol: IP (0x0021)) ns3::Ipv4Header (tos 0x0 DSCP Default ECN Not-ECT ttl 64 id 4 protocol 6 offset (bytes) 0 flags [none] length: 1016 10.1.1.1 > 10.1.2.2) ns3::TcpHeader (49153 > 7 [ACK] Seq=1172 Ack=1 Win=32768 ns3::TcpOptionTS(120;110) ns3::TcpOptionEnd(EOL)) ns3::SeqTsHeader ((seq=3 time=+0.120093s)) Payload (size=952)
r 0.126333 /NodeList/1/DeviceList/0/$ns3::PointToPointNetDevice/MacRx ns3::PppHeader (Point-to-Point Protocol: IP (0x0021)) ns3::Ipv4Header (tos 0x0 DSCP Default ECN Not-ECT ttl 64 id 5 protocol 6 offset (bytes) 0 flags [none] length: 748 10.1.1.1 > 10.1.2.2) ns3::TcpHeader (49153 > 7 [ACK] Seq=2136 Ack=1 Win=32768 ns3::TcpOptionTS(120;110) ns3::TcpOptionEnd(EOL)) ns3::SeqTsHeader ((seq=4 time=+0.120093s)) Payload (size=684)
r 0.12663 /NodeList/1/DeviceList/0/$ns3::PointToPointNetDevice/MacRx ns3::PppHeader (Point-to-Point Protocol: IP (0x0021)) ns3::Ipv4Header (tos 0x0 DSCP Default ECN Not-ECT ttl 64 id 6 protocol 6 offset (bytes) 0 flags [none] length: 740 10.1.1.1 > 10.1.2.2) ns3::TcpHeader (49153 > 7 [ACK] Seq=2832 Ack=1 Win=32768 ns3::TcpOptionTS(120;110) ns3::TcpOptionEnd(EOL)) ns3::SeqTsHeader ((seq=5 time=+0.120093s)) Payload (size=676)
r 0.127096 /NodeList/1/DeviceList/0/$ns3::PointToPointNetDevice/MacRx ns3::PppHeader (Point-to-Point Protocol: IP (0x0021)) ns3::Ipv4Header (tos 0x0 DSCP Default ECN Not-ECT ttl 64 id 7 protocol 6 offset (bytes) 0 flags [none] length: 1164 10.1.1.1 > 10.1.2.2) ns3::TcpHeader (49153 > 7 [ACK] Seq=3520 Ack=1 Win=32768 ns3::TcpOptionTS(120;110) ns3::TcpOptionEnd(EOL)) ns3::SeqTsHeader ((seq=6 time=+0.120093s)) Payload (size=1100)
r 0.127321 /NodeList/1/DeviceList/0/$ns3::PointToPointNetDevice/MacRx ns3::PppHeader (Point-to-Point Protocol: IP (0x0021)) ns3::Ipv4Header (tos 0x0 DSCP Default ECN Not-ECT ttl 64 id 8 protocol 6 offset (bytes) 0 flags [none] length: 559 10.1.1.1 > 10.1.2.2) ns3::TcpHeader (49153 > 7 [ACK] Seq=4632 Ack=1 Win=32768 ns3::TcpOptionTS(120;110) ns3::TcpOptionEnd(EOL)) ns3::SeqTsHeader ((seq=7 time=+0.120093s)) Payload (size=495)